# vtk DataFile Version 3.1
first test
ASCII 
DATASET UNSTRUCTURED_GRID 
POINTS 11 FLOAT
  0.0 0.0 0.0 
  1.0 0.0 0.0 
  1.0 1.0 0.0 
  0.0 1.0 0.0 
  0.0 0.0 1.0 
  1.0 0.0 1.0 
  1.0 1.0 1.0 
  0.0 1.0 1.0 
  2.0 0.0 0.0 
  2.0 1.0 0.0 
  2.0 1.0 1.0 
CELLS 5 26
  4 1 8 2 5 
  8 0 1 2 3 4 5 6 7 
  4 2 9 10 6 
  3 8 9 2 
  2 5 10 
CELL_TYPES 5
  10 
  12 
  9 
  5 
  3 
POINT_DATA 11
SCALARS distance float 
LOOKUP_TABLE default 
  0.0
  1.0
  1.41421356237
  1.0
  1.0
  1.41421356237
  1.73205080757
  1.41421356237
  2.0
  2.2360679775
  2.44948974278
SCALARS distance_*_3 float 
LOOKUP_TABLE default 
  0.0
  3.0
  4.24264068712
  3.0
  3.0
  4.24264068712
  5.19615242271
  4.24264068712
  6.0
  6.7082039325
  7.34846922835
